 vasp.6.4.3 19Mar24 (build Sep  4 2024 12:23:58) complex                         
 executed on              LinuxNV date 2026.05.29  12:51:52
 running    1 mpi-ranks, with    1 threads/rank, on    1 nodes
 distrk:  each k-point on    1 cores,    1 groups
 distr:  one band on NCORE=   1 cores,    1 groups
 OpenACC runtime initialized ...    1 GPUs detected


--------------------------------------------------------------------------------------------------------


 INCAR:
   SYSTEM = STO Volume Relaxation
   ISMEAR = 0
   SIGMA = 0.05
   ENCUT = 700
   PREC = Accurate
   ALGO = Normal
   EDIFF = 1E-6
   NELM = 100
   LREAL = False
   LWAVE = False
   IBRION = 2
   ISIF = 3
   NSW = 1000
   EDIFFG = -0.001
   PSTRESS = 50
   METAGGA = R2SCAN
   LASPH = .TRUE.
   LMIXTAU = .TRUE.
   ADDGRID = .TRUE.
   NCORE = 1
   NSIM = 4
   KPAR = 2

 POTCAR:    PAW_PBE Sr_sv 07Sep2000               
 POTCAR:    PAW_PBE Ti_sv 26Sep2005               
 POTCAR:    PAW_PBE O 08Apr2002                   
 POTCAR:    PAW_PBE Sr_sv 07Sep2000               
   SHA256 =  a8389d3481648516ee67182ee030b298d280b37e29cbbf2d8595f040d757c710 Sr_sv/POTCAR          
   COPYR  = (c) Copyright 07Sep2000 Georg Kresse                                                    
   COPYR  = This file is part of the software VASP. Any use, copying, and all other rights are regul
   COPYR  = If you do not have a valid VASP license, you may not use, copy or distribute this file. 
   VRHFIN =Sr: 4s4p5s                                                                               
   LEXCH  = PE                                                                                      
   EATOM  =   843.0319 eV,   61.9611 Ry                                                             
                                                                                                    
   TITEL  = PAW_PBE Sr_sv 07Sep2000                                                                 
   LULTRA =        F    use ultrasoft PP ?                                                          
   IUNSCR =        1    unscreen: 0-lin 1-nonlin 2-no                                               
   RPACOR =    2.200    partial core radius                                                         
   POMASS =   87.620; ZVAL   =   10.000    mass and valenz                                          
   RCORE  =    2.500    outmost cutoff radius                                                       
   RWIGS  =    4.040; RWIGS  =    2.138    wigner-seitz radius (au A)                               
   ENMAX  =  229.353; ENMIN  =  172.014 eV                                                          
   RCLOC  =    2.201    cutoff for local pot                                                        
   LCOR   =        T    correct aug charges                                                         
   LPAW   =        T    paw PP                                                                      
   EAUG   =  366.804                                                                                
   DEXC   =    0.000                                                                                
   RMAX   =    2.547    core radius for proj-oper                                                   
   RAUG   =    1.300    factor for augmentation sphere                                              
   RDEP   =    2.562    radius for radial grids                                                     
   RDEPT  =    2.128    core radius for aug-charge                                                  
                                                                                                    
   Atomic configuration                                                                             
   10 entries                                                                                       
     n  l   j            E        occ.                                                              
     1  0  0.50    -15934.8930   2.0000                                                             
     2  0  0.50     -2157.6250   2.0000                                                             
     2  1  1.50     -1917.0034   6.0000                                                             
     3  0  0.50      -333.7288   2.0000                                                             
     3  1  1.50      -256.0992   6.0000                                                             
     3  2  2.50      -127.9971  10.0000                                                             
     4  0  0.50       -40.8953   2.0000                                                             
     5  0  0.50        -3.5257   1.9990                                                             
     4  1  1.50       -22.8179   6.0000                                                             
     4  2  1.50        -1.2815   0.0010                                                             
   Description                                                                                      
     l       E           TYP  RCUT    TYP  RCUT                                                     
     0    -40.8953213     23  2.480                                                                 
     0     -3.5257161     23  2.480                                                                 
     1    -22.8178632     23  2.500                                                                 
     1    -24.1784458     23  2.500                                                                 
     2     -1.2814598     23  2.500                                                                 
     2      0.2279365     23  2.500                                                                 
  local pseudopotential read in
  partial core-charges read in
  partial kinetic energy density read in
  atomic valenz-charges read in
  non local Contribution for L=            0  read in
    real space projection operators read in
  non local Contribution for L=            0  read in
    real space projection operators read in
  non local Contribution for L=            1  read in
    real space projection operators read in
  non local Contribution for L=            1  read in
    real space projection operators read in
  non local Contribution for L=            2  read in
    real space projection operators read in
  non local Contribution for L=            2  read in
    real space projection operators read in
    PAW grid and wavefunctions read in
 
   number of l-projection  operators is LMAX  =            6
   number of lm-projection operators is LMMAX =           18
 
 POTCAR:    PAW_PBE Ti_sv 26Sep2005               
   SHA256 =  4d747badb5a5ea28d858fbac70885b3f8929d6fd9e5b0dbe1ecb9878dc164da1 Ti_sv/POTCAR          
   COPYR  = (c) Copyright 26Sep2005 Georg Kresse                                                    
   COPYR  = This file is part of the software VASP. Any use, copying, and all other rights are regul
   COPYR  = If you do not have a valid VASP license, you may not use, copy or distribute this file. 
   VRHFIN =Ti: 3p4s3d                                                                               
   LEXCH  = PE                                                                                      
   EATOM  =  1588.0892 eV,  116.7213 Ry                                                             
                                                                                                    
   TITEL  = PAW_PBE Ti_sv 26Sep2005                                                                 
   LULTRA =        F    use ultrasoft PP ?                                                          
   IUNSCR =        1    unscreen: 0-lin 1-nonlin 2-no                                               
   RPACOR =    2.000    partial core radius                                                         
   POMASS =   47.880; ZVAL   =   12.000    mass and valenz                                          
   RCORE  =    2.300    outmost cutoff radius                                                       
   RWIGS  =    2.300; RWIGS  =    1.217    wigner-seitz radius (au A)                               
   ENMAX  =  274.610; ENMIN  =  205.957 eV                                                          
   ICORE  =        3    local potential                                                             
   LCOR   =        T    correct aug charges                                                         
   LPAW   =        T    paw PP                                                                      
   EAUG   =  482.848                                                                                
   RMAX   =    2.348    core radius for proj-oper                                                   
   RAUG   =    1.300    factor for augmentation sphere                                              
   RDEP   =    2.381    radius for radial grids                                                     
   RDEPT  =    1.930    core radius for aug-charge                                                  
                                                                                                    
   Atomic configuration                                                                             
    8 entries                                                                                       
     n  l   j            E        occ.                                                              
     1  0  0.50     -4865.3608   2.0000                                                             
     2  0  0.50      -533.1368   2.0000                                                             
     2  1  1.50      -440.5031   6.0000                                                             
     3  0  0.50       -59.3186   2.0000                                                             
     4  0  0.50        -3.7291   1.0000                                                             
     3  1  1.50       -35.7012   6.0000                                                             
     3  2  2.50        -1.9157   3.0000                                                             
     4  3  2.50        -1.3606   0.0000                                                             
   Description                                                                                      
     l       E           TYP  RCUT    TYP  RCUT                                                     
     0    -59.3185931     23  1.800                                                                 
     0     -3.7290822     23  2.300                                                                 
     1    -35.7012045     23  2.300                                                                 
     1     -1.3605826     23  2.300                                                                 
     2     -1.9156920     23  2.300                                                                 
     2     -0.0236318     23  2.300                                                                 
     3     -1.3605826     23  2.300                                                                 
  local pseudopotential read in
  partial core-charges read in
  partial kinetic energy density read in
  atomic valenz-charges read in
  non local Contribution for L=            0  read in
    real space projection operators read in
  non local Contribution for L=            0  read in
    real space projection operators read in
  non local Contribution for L=            1  read in
    real space projection operators read in
  non local Contribution for L=            1  read in
    real space projection operators read in
  non local Contribution for L=            2  read in
    real space projection operators read in
  non local Contribution for L=            2  read in
    real space projection operators read in
    PAW grid and wavefunctions read in
 
   number of l-projection  operators is LMAX  =            6
   number of lm-projection operators is LMMAX =           18
 
 POTCAR:    PAW_PBE O 08Apr2002                   
   SHA256 =  818f92134a0a090dccd8ba1447fa70422a3b330e708bb4f08108d8ae51209ddf O/POTCAR              
   COPYR  = (c) Copyright 08Apr2002 Georg Kresse                                                    
   COPYR  = This file is part of the software VASP. Any use, copying, and all other rights are regul
   COPYR  = If you do not have a valid VASP license, you may not use, copy or distribute this file. 
   VRHFIN =O: s2p4                                                                                  
   LEXCH  = PE                                                                                      
   EATOM  =   432.3788 eV,   31.7789 Ry                                                             
                                                                                                    
   TITEL  = PAW_PBE O 08Apr2002                                                                     
   LULTRA =        F    use ultrasoft PP ?                                                          
   IUNSCR =        1    unscreen: 0-lin 1-nonlin 2-no                                               
   RPACOR =    1.200    partial core radius                                                         
   POMASS =   16.000; ZVAL   =    6.000    mass and valenz                                          
   RCORE  =    1.520    outmost cutoff radius                                                       
   RWIGS  =    1.550; RWIGS  =    0.820    wigner-seitz radius (au A)                               
   ENMAX  =  400.000; ENMIN  =  300.000 eV                                                          
   ICORE  =        2    local potential                                                             
   LCOR   =        T    correct aug charges                                                         
   LPAW   =        T    paw PP                                                                      
   EAUG   =  605.392                                                                                
   DEXC   =    0.000                                                                                
   RMAX   =    1.553    core radius for proj-oper                                                   
   RAUG   =    1.300    factor for augmentation sphere                                              
   RDEP   =    1.550    radius for radial grids                                                     
   RDEPT  =    1.329    core radius for aug-charge                                                  
                                                                                                    
   Atomic configuration                                                                             
    4 entries                                                                                       
     n  l   j            E        occ.                                                              
     1  0  0.50      -514.6923   2.0000                                                             
     2  0  0.50       -23.9615   2.0000                                                             
     2  1  0.50        -9.0305   4.0000                                                             
     3  2  1.50        -9.5241   0.0000                                                             
   Description                                                                                      
     l       E           TYP  RCUT    TYP  RCUT                                                     
     0    -23.9615318     23  1.200                                                                 
     0     -9.5240782     23  1.200                                                                 
     1     -9.0304911     23  1.520                                                                 
     1      8.1634956     23  1.520                                                                 
     2     -9.5240782      7  1.500                                                                 
  local pseudopotential read in
  partial core-charges read in
  partial kinetic energy density read in
  kinetic energy density of atom read in
  atomic valenz-charges read in
  non local Contribution for L=            0  read in
    real space projection operators read in
  non local Contribution for L=            0  read in
    real space projection operators read in
  non local Contribution for L=            1  read in
    real space projection operators read in
  non local Contribution for L=            1  read in
    real space projection operators read in
    PAW grid and wavefunctions read in
 
   number of l-projection  operators is LMAX  =            4
   number of lm-projection operators is LMMAX =            8
 
 -----------------------------------------------------------------------------
|                                                                             |
|               ----> ADVICE to this user running VASP <----                  |
|                                                                             |
|     You have a (more or less) 'large supercell' and for larger cells it     |
|     might be more efficient to use real-space projection operators.         |
|     Therefore, try LREAL= Auto in the INCAR file.                           |
|     Mind: For very accurate calculation, you might also keep the            |
|     reciprocal projection scheme (i.e. LREAL=.FALSE.).                      |
|                                                                             |
 -----------------------------------------------------------------------------

 -----------------------------------------------------------------------------
|                                                                             |
|               ----> ADVICE to this user running VASP <----                  |
|                                                                             |
|     You enforced a specific xc type in the INCAR file but a different       |
|     type was found in the POTCAR file.                                      |
|     I HOPE YOU KNOW WHAT YOU ARE DOING!                                     |
|                                                                             |
 -----------------------------------------------------------------------------

  PAW_PBE Sr_sv 07Sep2000               :
 energy of atom  1       EATOM= -843.0319
 kinetic energy error for atom=    0.0004 (will be added to EATOM!!)
  PAW_PBE Ti_sv 26Sep2005               :
 energy of atom  2       EATOM=-1588.0892
 kinetic energy error for atom=    0.0013 (will be added to EATOM!!)
  PAW_PBE O 08Apr2002                   :
 energy of atom  3       EATOM= -432.3788
 kinetic energy error for atom=    0.0091 (will be added to EATOM!!)
 
 
 POSCAR: Tetragonal STO UC (conventional)
  positions in direct lattice
  No initial velocities read in


 exchange-correlation table for R2SCAN
   RHO(1)=    0.500       N(1)  =     2000
   RHO(2)=  100.500       N(2)  =     4000
 


--------------------------------------------------------------------------------------------------------


 ion  position               nearest neighbor table
   1  0.000  0.500  0.250-  12 2.65  16 2.65   9 2.65  17 2.65  13 2.76  14 2.76  14 2.76  13 2.76
                            15 2.89  10 2.89  11 2.89  18 2.89   6 3.39   7 3.39   5 3.39   8 3.39
   2  0.500  0.000  0.250-  11 2.65  18 2.65  15 2.65  10 2.65  13 2.76  14 2.76  13 2.76  14 2.76
                            17 2.89   9 2.89  12 2.89  16 2.89   5 3.39   7 3.39   6 3.39   8 3.39
   3  0.500  0.000  0.750-  11 2.65  18 2.65  15 2.65  10 2.65  19 2.76  20 2.76  20 2.76  19 2.76
                             9 2.89  17 2.89  16 2.89  12 2.89   8 3.39   5 3.39   7 3.39   6 3.39
   4  0.000  0.500  0.750-  12 2.65  16 2.65   9 2.65  17 2.65  19 2.76  20 2.76  19 2.76  20 2.76
                            10 2.89  15 2.89  18 2.89  11 2.89   7 3.39   5 3.39   8 3.39   6 3.39
   5  0.500  0.500  0.500-   9 1.96  10 1.96  12 1.96  11 1.96  13 1.96  20 1.96   1 3.39   2 3.39
                             3 3.39   4 3.39   2 3.39   3 3.39   1 3.39   4 3.39
   6  0.000  0.000  0.500-  12 1.96  11 1.96   9 1.96  10 1.96  14 1.96  19 1.96   1 3.39   2 3.39
                             4 3.39   3 3.39   1 3.39   3 3.39   2 3.39   4 3.39
   7  0.000  0.000  0.000-  16 1.96  18 1.96  17 1.96  15 1.96  14 1.96  19 1.96   3 3.39   4 3.39
                             1 3.39   2 3.39   1 3.39   4 3.39   2 3.39   3 3.39
   8  0.500  0.500  0.000-  15 1.96  17 1.96  16 1.96  18 1.96  13 1.96  20 1.96   3 3.39   4 3.39
                             2 3.39   1 3.39   1 3.39   3 3.39   2 3.39   4 3.39
   9  0.771  0.271  0.500-   5 1.96   6 1.96   1 2.65   4 2.65   3 2.89   2 2.89
  10  0.729  0.771  0.500-   5 1.96   6 1.96   2 2.65   3 2.65   1 2.89   4 2.89
  11  0.271  0.229  0.500-   6 1.96   5 1.96   2 2.65   3 2.65   1 2.89   4 2.89
  12  0.229  0.729  0.500-   6 1.96   5 1.96   1 2.65   4 2.65   2 2.89   3 2.89
  13  0.500  0.500  0.250-   5 1.96   8 1.96   1 2.76   2 2.76   2 2.76   1 2.76
  14  0.000  0.000  0.250-   6 1.96   7 1.96   1 2.76   2 2.76   1 2.76   2 2.76
  15  0.271  0.771  0.000-   7 1.96   8 1.96   3 2.65   2 2.65   1 2.89   4 2.89
  16  0.229  0.271  0.000-   7 1.96   8 1.96   1 2.65   4 2.65   3 2.89   2 2.89
  17  0.771  0.729  0.000-   7 1.96   8 1.96   1 2.65   4 2.65   3 2.89   2 2.89
  18  0.729  0.229  0.000-   7 1.96   8 1.96   2 2.65   3 2.65   4 2.89   1 2.89
  19  0.000  0.000  0.750-   6 1.96   7 1.96   3 2.76   4 2.76   4 2.76   3 2.76
  20  0.500  0.500  0.750-   5 1.96   8 1.96   3 2.76   4 2.76   3 2.76   4 2.76
 
  LATTYP: Found a simple tetragonal cell.
 ALAT       =     5.5223296301
 C/A-ratio  =     1.4206439644
  
  Lattice vectors:
  
 A1 = (   5.5223296301,   0.0000000000,   0.0000000000)
 A2 = (  -0.0000000000,   5.5223296301,   0.0000000000)
 A3 = (   0.0000000000,   0.0000000000,   7.8452642586)


Analysis of symmetry for initial positions (statically):
=====================================================================
 Subroutine PRICEL returns following result:
 
  LATTYP: Found a body centered tetragonal cell.
 ALAT       =     5.5223296301
 C/A-ratio  =     1.4206439644
  
  Lattice vectors:
  
 A1 = (   2.7611648150,  -2.7611648150,  -3.9226321293)
 A2 = (  -2.7611648150,   2.7611648150,  -3.9226321293)
 A3 = (   2.7611648150,   2.7611648150,   3.9226321293)
 
   2 primitive cells build up your supercell.
 

 Routine SETGRP: Setting up the symmetry group for a 
 simple tetragonal supercell.


 Subroutine GETGRP returns: Found 16 space group operations
 (whereof  8 operations were pure point group operations)
 out of a pool of 16 trial point group operations.


The static configuration has the point symmetry C_4h.
 The point group associated with its full space group is D_4h.


Analysis of symmetry for dynamics (positions and initial velocities):
=====================================================================
 Subroutine PRICEL returns following result:
 
  LATTYP: Found a body centered tetragonal cell.
 ALAT       =     5.5223296301
 C/A-ratio  =     1.4206439644
  
  Lattice vectors:
  
 A1 = (   2.7611648150,  -2.7611648150,  -3.9226321293)
 A2 = (  -2.7611648150,   2.7611648150,  -3.9226321293)
 A3 = (   2.7611648150,   2.7611648150,   3.9226321293)
 
   2 primitive cells build up your supercell.
 

 Routine SETGRP: Setting up the symmetry group for a 
 simple tetragonal supercell.


 Subroutine GETGRP returns: Found 16 space group operations
 (whereof  8 operations were pure point group operations)
 out of a pool of 16 trial point group operations.


The dynamic configuration has the point symmetry C_4h.
 The point group associated with its full space group is D_4h.


 Subroutine INISYM returns: Found 16 space group operations
 (whereof  8 operations are pure point group operations),
 and found     2 'primitive' translations


----------------------------------------------------------------------------------------

                                     Primitive cell                                     

  volume of cell :     119.6251

  direct lattice vectors                    reciprocal lattice vectors
     2.761164815 -2.761164815 -3.922632129     0.181082997  0.000000000 -0.127465432
    -2.761164815  2.761164815 -3.922632129     0.000000000  0.181082997 -0.127465432
     2.761164815  2.761164815  3.922632129     0.181082997  0.181082997 -0.000000000

  length of vectors
     5.534898833  5.534898833  5.534898833     0.221446355  0.221446355  0.256090030

  position of ions in fractional coordinates (direct lattice)
     0.750000000  0.250000000  0.500000000
     0.250000000  0.750000000  0.500000000
     0.000000000  0.000000000  0.000000000
     0.500000000  0.500000000  1.000000000
     0.270957450  0.770957450  0.041914900
     0.229042550  0.270957450  0.500000000
     0.770957450  0.729042550  0.500000000
     0.729042550  0.229042550  0.958085100
     0.250000000  0.250000000  0.000000000
     0.750000000  0.750000000  1.000000000

  ion indices of the primitive-cell ions
   primitive index   ion index
                 1           1
                 2           4
                 3           5
                 4           6
                 5           9
                 6          16
                 7          17
                 8          12
                 9          13
                10          14

----------------------------------------------------------------------------------------

 
 
 KPOINTS: 2x2x2 grid                              

Automatic generation of k-mesh.
 Grid dimensions read from file:
 generate k-points for:    6    6    4

 Generating k-lattice:

  Cartesian coordinates                     Fractional coordinates (reciprocal lattice)
     0.030180500  0.000000000 -0.000000000     0.166666667 -0.000000000  0.000000000
     0.000000000  0.030180500  0.000000000     0.000000000  0.166666667  0.000000000
    -0.000000000 -0.000000000  0.031866358     0.000000000  0.000000000  0.250000000

  Length of vectors
     0.030180500  0.030180500  0.031866358

  Shift w.r.t. Gamma in fractional coordinates (k-lattice)
     0.000000000  0.000000000  0.000000000

 
 Subroutine IBZKPT returns following result:
 ===========================================
 
 Found     30 irreducible k-points:
 
 Following reciprocal coordinates:
            Coordinates               Weight
  0.000000  0.000000  0.000000      1.000000
  0.166667  0.000000  0.000000      4.000000
  0.333333  0.000000  0.000000      4.000000
  0.500000  0.000000  0.000000      2.000000
  0.166667  0.166667  0.000000      4.000000
  0.333333  0.166667  0.000000      8.000000
  0.500000  0.166667  0.000000      4.000000
  0.333333  0.333333  0.000000      4.000000
  0.500000  0.333333  0.000000      4.000000
  0.500000  0.500000  0.000000      1.000000
  0.000000  0.000000  0.250000      2.000000
  0.166667  0.000000  0.250000      8.000000
  0.333333  0.000000  0.250000      8.000000
  0.500000  0.000000  0.250000      4.000000
  0.166667  0.166667  0.250000      8.000000
  0.333333  0.166667  0.250000     16.000000
  0.500000  0.166667  0.250000      8.000000
  0.333333  0.333333  0.250000      8.000000
  0.500000  0.333333  0.250000      8.000000
  0.500000  0.500000  0.250000      2.000000
  0.000000  0.000000  0.500000      1.000000
  0.166667  0.000000  0.500000      4.000000
  0.333333  0.000000  0.500000      4.000000
  0.500000  0.000000  0.500000      2.000000
  0.166667  0.166667  0.500000      4.000000
  0.333333  0.166667  0.500000      8.000000
  0.500000  0.166667  0.500000      4.000000
  0.333333  0.333333  0.500000      4.000000
  0.500000  0.333333  0.500000      4.000000
  0.500000  0.500000  0.500000      1.000000
 
 Following cartesian coordinates:
            Coordinates               Weight
  0.000000  0.000000  0.000000      1.000000
  0.030180  0.000000  0.000000      4.000000
  0.060361  0.000000  0.000000      4.000000
  0.090541  0.000000  0.000000      2.000000
  0.030180  0.030180  0.000000      4.000000
  0.060361  0.030180  0.000000      8.000000
  0.090541  0.030180  0.000000      4.000000
  0.060361  0.060361  0.000000      4.000000
  0.090541  0.060361  0.000000      4.000000
  0.090541  0.090541  0.000000      1.000000
  0.000000  0.000000  0.031866      2.000000
  0.030180  0.000000  0.031866      8.000000
  0.060361  0.000000  0.031866      8.000000
  0.090541  0.000000  0.031866      4.000000
  0.030180  0.030180  0.031866      8.000000
  0.060361  0.030180  0.031866     16.000000
  0.090541  0.030180  0.031866      8.000000
  0.060361  0.060361  0.031866      8.000000
  0.090541  0.060361  0.031866      8.000000
  0.090541  0.090541  0.031866      2.000000
  0.000000  0.000000  0.063733      1.000000
  0.030180  0.000000  0.063733      4.000000
  0.060361  0.000000  0.063733      4.000000
  0.090541  0.000000  0.063733      2.000000
  0.030180  0.030180  0.063733      4.000000
  0.060361  0.030180  0.063733      8.000000
  0.090541  0.030180  0.063733      4.000000
  0.060361  0.060361  0.063733      4.000000
  0.090541  0.060361  0.063733      4.000000
  0.090541  0.090541  0.063733      1.000000
 


--------------------------------------------------------------------------------------------------------




 Dimension of arrays:
   k-points           NKPTS =     30   k-points in BZ     NKDIM =     30   number of bands    NBANDS=     96
   number of dos      NEDOS =    301   number of ions     NIONS =     20
   non local maximal  LDIM  =      6   non local SUM 2l+1 LMDIM =     18
   total plane-waves  NPLWV = 161280
   max r-space proj   IRMAX =      1   max aug-charges    IRDMAX= 316380
   dimension x,y,z NGX =    48 NGY =   48 NGZ =   70
   dimension x,y,z NGXF=    96 NGYF=   96 NGZF=  140
   support grid    NGXF=   192 NGYF=  192 NGZF=  280
   ions per type =               4   4  12
   NGX,Y,Z   is equivalent  to a cutoff of  14.45, 14.45, 14.83 a.u.
   NGXF,Y,Z  is equivalent  to a cutoff of  28.90, 28.90, 29.67 a.u.

 SYSTEM =  STO Volume Relaxation                   
 POSCAR =  Tetragonal STO UC (conventional)        

 Startparameter for this run:
   NWRITE =      2    write-flag & timer
   PREC   = accura    normal or accurate (medium, high low for compatibility)
   ISTART =      0    job   : 0-new  1-cont  2-samecut
   ICHARG =      2    charge: 1-file 2-atom 10-const
   ISPIN  =      1    spin polarized calculation?
   LNONCOLLINEAR =      F non collinear calculations
   LSORBIT =      F    spin-orbit coupling
   INIWAV =      1    electr: 0-lowe 1-rand  2-diag
   LASPH  =      T    aspherical Exc in radial PAW
 Electronic Relaxation 1
   ENCUT  =  700.0 eV  51.45 Ry    7.17 a.u.  11.91 11.91 16.92*2*pi/ulx,y,z
   ENINI  =  700.0     initial cutoff
   ENAUG  =  605.4 eV  augmentation charge cutoff
   NELM   =    100;   NELMIN=  2; NELMDL= -5     # of ELM steps 
   EDIFF  = 0.1E-05   stopping-criterion for ELM
   LREAL  =      F    real-space projection
   NLSPLINE    = F    spline interpolate recip. space projectors
   LCOMPAT=      F    compatible to vasp.4.4
   GGA_COMPAT  = T    GGA compatible to vasp.4.4-vasp.4.6
   LMAXPAW     = -100 max onsite density
   LMAXMIX     =    2 max onsite mixed and CHGCAR
   VOSKOWN=      0    Vosko Wilk Nusair interpolation
   ROPT   =    0.00000   0.00000   0.00000
 Ionic relaxation
   EDIFFG = -.1E-02   stopping-criterion for IOM
   NSW    =   1000    number of steps for IOM
   NBLOCK =      1;   KBLOCK =   1000    inner block; outer block 
   IBRION =      2    ionic relax: 0-MD 1-quasi-New 2-CG
   NFREE  =      1    steps in history (QN), initial steepest desc. (CG)
   ISIF   =      3    stress and relaxation
   IWAVPR =     11    prediction:  0-non 1-charg 2-wave 3-comb
   ISYM   =      2    0-nonsym 1-usesym 2-fastsym
   LCORR  =      T    Harris-Foulkes like correction to forces

   POTIM  = 0.5000    time-step for ionic-motion
   TEIN   =    0.0    initial temperature
   TEBEG  =    0.0;   TEEND  =   0.0 temperature during run
   SMASS  =  -3.00    Nose mass-parameter (am)
   estimated Nose-frequenzy (Omega)   =  0.10E-29 period in steps = 0.13E+47 mass=  -0.697E-27a.u.
   SCALEE = 1.0000    scale energy and forces
   NPACO  =    256;   APACO  = 10.0  distance and # of slots for P.C.
   PSTRESS=   50.0 pullay stress

  Mass of Ions in am
   POMASS =  87.62 47.88 16.00
  Ionic Valenz
   ZVAL   =  10.00 12.00  6.00
  Atomic Wigner-Seitz radii
   RWIGS  =  -1.00 -1.00 -1.00
  virtual crystal weights 
   VCA    =   1.00  1.00  1.00
   NELECT =     160.0000    total number of electrons
   NUPDOWN=      -1.0000    fix difference up-down

 DOS related values:
   EMIN   =  10.00;   EMAX   =-10.00  energy-range for DOS
   EFERMI =   0.00;   METHOD = LEGACY      
   ISMEAR =     0;   SIGMA  =   0.05  broadening in eV -4-tet -1-fermi 0-gaus

 Electronic relaxation 2 (details)
   IALGO  =     38    algorithm
   LDIAG  =      T    sub-space diagonalisation (order eigenvalues)
   LSUBROT=      F    optimize rotation matrix (better conditioning)
   TURBO    =      0    0=normal 1=particle mesh
   IRESTART =      0    0=no restart 2=restart with 2 vectors
   NREBOOT  =      0    no. of reboots
   NMIN     =      0    reboot dimension
   EREF     =   0.00    reference energy to select bands
   IMIX   =      4    mixing-type and parameters
     AMIX     =   0.40;   BMIX     =  1.00
     AMIX_MAG =   1.60;   BMIX_MAG =  1.00
     AMIN     =   0.10
     WC   =   100.;   INIMIX=   1;  MIXPRE=   1;  MAXMIX= -45

 Intra band minimization:
   WEIMIN = 0.0010     energy-eigenvalue tresh-hold
   EBREAK =  0.26E-08  absolut break condition
   DEPER  =   0.30     relativ break condition  

   TIME   =   0.40     timestep for ELM

  volume/ion in A,a.u.               =      11.96        80.73
  Fermi-wavevector in a.u.,A,eV,Ry     =   1.431630  2.705388 27.886012  2.049564
  Thomas-Fermi vector in A             =   2.551345
 
 Write flags
   LWAVE        =      F    write WAVECAR
   LDOWNSAMPLE  =      F    k-point downsampling of WAVECAR
   LCHARG       =      T    write CHGCAR
   LVTOT        =      F    write LOCPOT, total local potential
   LVHAR        =      F    write LOCPOT, Hartree potential only
   WRT_POTENTIAL= false  ! write potential to hdf5 file
   LELF         =      F    write electronic localiz. function (ELF)
   LORBIT       =      0    0 simple, 1 ext, 2 COOP (PROOUT), +10 PAW based schemes


 Dipole corrections
   LMONO      =      F    monopole corrections only (constant potential shift)
   LDIPOL     =      F    correct potential (dipole corrections)
   IDIPOL     =      0    1-x, 2-y, 3-z, 4-all directions 
   EPSILON    =  1.0000000 bulk dielectric constant
   LVACPOTAV  =      F  vacuum potentials using an averaging scheme for the charge density
   VACPOTFLAT =  0.1000000 required flatness to determine vacuum potential
 Exchange correlation treatment:
   METAGGA = R2SCAN    functional components
   XC_C    = 1    coefficients multiplying the functional components
   LIBXC   =     F    Libxc                    
   VOSKOWN =     0    Vosko Wilk Nusair interpolation
   LHFCALC =     F    Hartree Fock is set to
   LHFONE  =     F    Hartree Fock one center treatment
   AEXX    =    0.0000 exact exchange contribution

 Parameters of functionals:
   R2SCAN:
     No parameter
 
 Accuracy and mixing parameters for tau-dependent meta-GGA functionals:
   LMAXTAU = 6
   LMIXTAU = T
 
 Van der Waals corrections
   IVDW    =     0    specifies the selected vdW correction

 Linear response parameters
   LEPSILON=     F    determine dielectric tensor
   LRPA    =     F    only Hartree local field effects (RPA)
   LNABLA  =     F    use nabla operator in PAW spheres
   LVEL    =     F    velocity operator in full k-point grid
   CSHIFT  =0.1000    complex shift for real part using Kramers Kronig
   OMEGAMAX=  -1.0    maximum frequency
   DEG_THRESHOLD= 0.2000000E-02 threshold for treating states as degnerate
   RTIME   =   -0.100 relaxation time in fs
  (WPLASMAI=    0.000 imaginary part of plasma frequency in eV, 0.658/RTIME)
   DFIELD  = 0.0000000 0.0000000 0.0000000 field for delta impulse in time
 
  Optional k-point grid parameters
   LKPOINTS_OPT  =     F    use optional k-point grid
   KPOINTS_OPT_MODE=     1    mode for optional k-point grid
 
 Orbital magnetization related:
   ORBITALMAG=     F  switch on orbital magnetization
   LCHIMAG   =     F  perturbation theory with respect to B field
   DQ        =  0.001000  dq finite difference perturbation B field
   LLRAUG    =     F  two centre corrections for induced B field
   LBONE     =     F  B-component reconstruction in AE one-centre
   LVGVCALC  =     T  calculate vGv susceptibility
   LVGVAPPL  =     F  apply vGv susceptibility instead of pGv for G=0

 Random number generation:
   RANDOM_GENERATOR = DEFAULT
   PCG_SEED         = not used


--------------------------------------------------------------------------------------------------------


 conjugate gradient relaxation of ions
 charge density and potential will be updated during run
 non-spin polarized calculation
 Variant of blocked Davidson
 Davidson routine will perform the subspace rotation
 perform sub-space diagonalisation
    after iterative eigenvector-optimisation
 modified Broyden-mixing scheme, WC =      100.0
 initial mixing is a Kerker type mixing with AMIX =  0.4000 and BMIX =      1.0000
 Hartree-type preconditioning will be used
 using additional bands            16
 reciprocal scheme for non local part
 use partial core corrections
 calculate Harris-corrections to forces 
   (improved forces if not selfconsistent)
 use gradient corrections 
 use of overlap-Matrix (Vanderbilt PP)
 Gauss-broadening in eV      SIGMA  =   0.05


--------------------------------------------------------------------------------------------------------


  energy-cutoff  :      700.00
  volume of cell :      239.25
      direct lattice vectors                 reciprocal lattice vectors
     5.522329630  0.000000000  0.000000000     0.181082997  0.000000000 -0.000000000
    -0.000000000  5.522329630  0.000000000     0.000000000  0.181082997  0.000000000
     0.000000000  0.000000000  7.845264259    -0.000000000 -0.000000000  0.127465432

  length of vectors
     5.522329630  5.522329630  7.845264259     0.181082997  0.181082997  0.127465432


 
 k-points in units of 2pi/SCALE and weight: 2x2x2 grid                              
   0.00000000  0.00000000  0.00000000       0.007
   0.03018050  0.00000000  0.00000000       0.028
   0.06036100  0.00000000  0.00000000       0.028
   0.09054150  0.00000000  0.00000000       0.014
   0.03018050  0.03018050  0.00000000       0.028
   0.06036100  0.03018050  0.00000000       0.056
   0.09054150  0.03018050  0.00000000       0.028
   0.06036100  0.06036100  0.00000000       0.028
   0.09054150  0.06036100  0.00000000       0.028
   0.09054150  0.09054150  0.00000000       0.007
   0.00000000  0.00000000  0.03186636       0.014
   0.03018050  0.00000000  0.03186636       0.056
   0.06036100  0.00000000  0.03186636       0.056
   0.09054150  0.00000000  0.03186636       0.028
   0.03018050  0.03018050  0.03186636       0.056
   0.06036100  0.03018050  0.03186636       0.111
   0.09054150  0.03018050  0.03186636       0.056
   0.06036100  0.06036100  0.03186636       0.056
   0.09054150  0.06036100  0.03186636       0.056
   0.09054150  0.09054150  0.03186636       0.014
   0.00000000  0.00000000  0.06373272       0.007
   0.03018050  0.00000000  0.06373272       0.028
   0.06036100  0.00000000  0.06373272       0.028
   0.09054150  0.00000000  0.06373272       0.014
   0.03018050  0.03018050  0.06373272       0.028
   0.06036100  0.03018050  0.06373272       0.056
   0.09054150  0.03018050  0.06373272       0.028
   0.06036100  0.06036100  0.06373272       0.028
   0.09054150  0.06036100  0.06373272       0.028
   0.09054150  0.09054150  0.06373272       0.007
 
 k-points in reciprocal lattice and weights: 2x2x2 grid                              
   0.00000000  0.00000000  0.00000000       0.007
   0.16666667  0.00000000  0.00000000       0.028
   0.33333333  0.00000000  0.00000000       0.028
   0.50000000  0.00000000  0.00000000       0.014
   0.16666667  0.16666667  0.00000000       0.028
   0.33333333  0.16666667  0.00000000       0.056
   0.50000000  0.16666667  0.00000000       0.028
   0.33333333  0.33333333  0.00000000       0.028
   0.50000000  0.33333333  0.00000000       0.028
   0.50000000  0.50000000  0.00000000       0.007
   0.00000000  0.00000000  0.25000000       0.014
   0.16666667  0.00000000  0.25000000       0.056
   0.33333333  0.00000000  0.25000000       0.056
   0.50000000  0.00000000  0.25000000       0.028
   0.16666667  0.16666667  0.25000000       0.056
   0.33333333  0.16666667  0.25000000       0.111
   0.50000000  0.16666667  0.25000000       0.056
   0.33333333  0.33333333  0.25000000       0.056
   0.50000000  0.33333333  0.25000000       0.056
   0.50000000  0.50000000  0.25000000       0.014
   0.00000000  0.00000000  0.50000000       0.007
   0.16666667  0.00000000  0.50000000       0.028
   0.33333333  0.00000000  0.50000000       0.028
   0.50000000  0.00000000  0.50000000       0.014
   0.16666667  0.16666667  0.50000000       0.028
   0.33333333  0.16666667  0.50000000       0.056
   0.50000000  0.16666667  0.50000000       0.028
   0.33333333  0.33333333  0.50000000       0.028
   0.50000000  0.33333333  0.50000000       0.028
   0.50000000  0.50000000  0.50000000       0.007
 
 position of ions in fractional coordinates (direct lattice) 
   0.00000000  0.50000000  0.25000000
   0.50000000  0.00000000  0.25000000
   0.50000000  0.00000000  0.75000000
   0.00000000  0.50000000  0.75000000
   0.50000000  0.50000000  0.50000000
   0.00000000  0.00000000  0.50000000
   0.00000000  0.00000000  0.00000000
   0.50000000  0.50000000  0.00000000
   0.77095745  0.27095745  0.50000000
   0.72904255  0.77095745  0.50000000
   0.27095745  0.22904255  0.50000000
   0.22904255  0.72904255  0.50000000
   0.50000000  0.50000000  0.25000000
   0.00000000  0.00000000  0.25000000
   0.27095745  0.77095745  0.00000000
   0.22904255  0.27095745  0.00000000
   0.77095745  0.72904255  0.00000000
   0.72904255  0.22904255  0.00000000
   0.00000000  0.00000000  0.75000000
   0.50000000  0.50000000  0.75000000
 
 position of ions in cartesian coordinates  (Angst):
  -0.00000000  2.76116482  1.96131606
   2.76116482  0.00000000  1.96131606
   2.76116482  0.00000000  5.88394819
  -0.00000000  2.76116482  5.88394819
   2.76116482  2.76116482  3.92263213
   0.00000000  0.00000000  3.92263213
   0.00000000  0.00000000  0.00000000
   2.76116482  2.76116482  0.00000000
   4.25748117  1.49631635  3.92263213
   4.02601328  4.25748117  3.92263213
   1.49631635  1.26484846  3.92263213
   1.26484846  4.02601328  3.92263213
   2.76116482  2.76116482  1.96131606
   0.00000000  0.00000000  1.96131606
   1.49631635  4.25748117  0.00000000
   1.26484846  1.49631635  0.00000000
   4.25748117  4.02601328  0.00000000
   4.02601328  1.26484846  0.00000000
   0.00000000  0.00000000  5.88394819
   2.76116482  2.76116482  5.88394819
 


--------------------------------------------------------------------------------------------------------


 k-point     1 :   0.0000 0.0000 0.0000  plane waves:   10037
 k-point     2 :   0.1667 0.0000 0.0000  plane waves:   10028
 k-point     3 :   0.3333 0.0000 0.0000  plane waves:   10062
 k-point     4 :   0.5000 0.0000 0.0000  plane waves:   10076
 k-point     5 :   0.1667 0.1667 0.0000  plane waves:   10043
 k-point     6 :   0.3333 0.1667 0.0000  plane waves:   10054
 k-point     7 :   0.5000 0.1667 0.0000  plane waves:   10080
 k-point     8 :   0.3333 0.3333 0.0000  plane waves:   10067
 k-point     9 :   0.5000 0.3333 0.0000  plane waves:   10062
 k-point    10 :   0.5000 0.5000 0.0000  plane waves:   10016
 k-point    11 :   0.0000 0.0000 0.2500  plane waves:   10038
 k-point    12 :   0.1667 0.0000 0.2500  plane waves:   10046
 k-point    13 :   0.3333 0.0000 0.2500  plane waves:   10064
 k-point    14 :   0.5000 0.0000 0.2500  plane waves:   10054
 k-point    15 :   0.1667 0.1667 0.2500  plane waves:   10058
 k-point    16 :   0.3333 0.1667 0.2500  plane waves:   10067
 k-point    17 :   0.5000 0.1667 0.2500  plane waves:   10066
 k-point    18 :   0.3333 0.3333 0.2500  plane waves:   10079
 k-point    19 :   0.5000 0.3333 0.2500  plane waves:   10056
 k-point    20 :   0.5000 0.5000 0.2500  plane waves:   10080
 k-point    21 :   0.0000 0.0000 0.5000  plane waves:   10026
 k-point    22 :   0.1667 0.0000 0.5000  plane waves:   10034
 k-point    23 :   0.3333 0.0000 0.5000  plane waves:   10060
 k-point    24 :   0.5000 0.0000 0.5000  plane waves:   10052
 k-point    25 :   0.1667 0.1667 0.5000  plane waves:   10056
 k-point    26 :   0.3333 0.1667 0.5000  plane waves:   10072
 k-point    27 :   0.5000 0.1667 0.5000  plane waves:   10076
 k-point    28 :   0.3333 0.3333 0.5000  plane waves:   10068
 k-point    29 :   0.5000 0.3333 0.5000  plane waves:   10084
 k-point    30 :   0.5000 0.5000 0.5000  plane waves:   10120

 maximum and minimum number of plane-waves per node :     10120    10016

 maximum number of plane-waves:     10120
 maximum index in each direction: 
   IXMAX=   11   IYMAX=   11   IZMAX=   16
   IXMIN=  -12   IYMIN=  -12   IZMIN=  -17


 serial   3D FFT for wavefunctions
 parallel 3D FFT for charge:
    minimum data exchange during FFTs selected (reduces bandwidth)


 total amount of memory used by VASP MPI-rank0   937586. kBytes
=======================================================================

   base      :      30000. kBytes
   nonl-proj :     134393. kBytes
   fftplans  :     189916. kBytes
   grid      :     105578. kBytes
   one-center:        311. kBytes
   wavefun   :     477388. kBytes
 
     INWAV:  cpu time      0.0001: real time      0.0003
 Broyden mixing: mesh for mixing (old mesh)
   NGX = 23   NGY = 23   NGZ = 33
  (NGX  = 96   NGY  = 96   NGZ  =140)
  gives a total of  17457 points

 initial charge density was supplied:
 charge density of overlapping atoms calculated
 number of electron     160.0000000 magnetization 
 keeping initial charge density in first step


--------------------------------------------------------------------------------------------------------


 Maximum index for augmentation-charges        306933 (set IRDMAX)


--------------------------------------------------------------------------------------------------------


 First call to EWALD:  gamma=   0.286
 Maximum number of real-space cells 3x 3x 2
 Maximum number of reciprocal cells 2x 2x 3

    FEWALD:  cpu time      0.0023: real time      0.0023


--------------------------------------- Ionic step        1  -------------------------------------------




--------------------------------------- Iteration      1(   1)  ---------------------------------------


    POTLOK:  cpu time      0.0313: real time      0.0322
    SETDIJ:  cpu time      4.5588: real time      4.5687
     EDDAV:  cpu time      4.8173: real time      4.8790
       DOS:  cpu time      0.0012: real time      0.0012
    --------------------------------------------
      LOOP:  cpu time      9.4086: real time      9.4810

 eigenvalue-minimisations  :  5760
 total energy-change (2. order) : 0.2416692E+04  (-0.9603138E+04)
 number of electron     160.0000000 magnetization 
 augmentation part      160.0000000 magnetization 

 Free energy of the ion-electron system (eV)
  ---------------------------------------------------
  alpha Z        PSCENC =       908.97320413
  Ewald energy   TEWEN  =    -11560.81749721
  -Hartree energ DENC   =     -3501.74562899
  -exchange      EXHF   =         0.00000000
  -V(xc)+E(xc)   XCENC  =       838.61060741
  PAW double counting   =     11611.25864530   -11583.98836241
  entropy T*S    EENTRO =        -0.00586696
  eigenvalues    EBANDS =       791.49274922
  atomic energy  EATOM  =     14912.91411397
  Solvation  Ediel_sol  =         0.00000000
  ---------------------------------------------------
  free energy    TOTEN  =      2416.69196446 eV

  energy without entropy =     2416.69783142  energy(sigma->0) =     2416.69489794


--------------------------------------------------------------------------------------------------------




--------------------------------------- Iteration      1(   2)  ---------------------------------------


     EDDAV:  cpu time      4.6891: real time      4.7007
       DOS:  cpu time      0.0014: real time      0.0014
    --------------------------------------------
      LOOP:  cpu time      4.6905: real time      4.7021

 eigenvalue-minimisations  :  5800
 total energy-change (2. order) :-0.2252021E+04  (-0.2144232E+04)
 number of electron     160.0000000 magnetization 
 augmentation part      160.0000000 magnetization 

 Free energy of the ion-electron system (eV)
  ---------------------------------------------------
  alpha Z        PSCENC =       908.97320413
  Ewald energy   TEWEN  =    -11560.81749721
  -Hartree energ DENC   =     -3501.74562899
  -exchange      EXHF   =         0.00000000
  -V(xc)+E(xc)   XCENC  =       838.61060741
  PAW double counting   =     11611.25864530   -11583.98836241
  entropy T*S    EENTRO =        -0.00517814
  eigenvalues    EBANDS =     -1460.52931766
  atomic energy  EATOM  =     14912.91411397
  Solvation  Ediel_sol  =         0.00000000
  ---------------------------------------------------
  free energy    TOTEN  =       164.67058640 eV

  energy without entropy =      164.67576454  energy(sigma->0) =      164.67317547


--------------------------------------------------------------------------------------------------------




--------------------------------------- Iteration      1(   3)  ---------------------------------------


     EDDAV:  cpu time      5.3544: real time      5.3681
       DOS:  cpu time      0.0007: real time      0.0007
    --------------------------------------------
      LOOP:  cpu time      5.3551: real time      5.3688

 eigenvalue-minimisations  :  7112
 total energy-change (2. order) :-0.4732688E+03  (-0.4559166E+03)
 number of electron     160.0000000 magnetization 
 augmentation part      160.0000000 magnetization 

 Free energy of the ion-electron system (eV)
  ---------------------------------------------------
  alpha Z        PSCENC =       908.97320413
  Ewald energy   TEWEN  =    -11560.81749721
  -Hartree energ DENC   =     -3501.74562899
  -exchange      EXHF   =         0.00000000
  -V(xc)+E(xc)   XCENC  =       838.61060741
  PAW double counting   =     11611.25864530   -11583.98836241
  entropy T*S    EENTRO =        -0.00000000
  eigenvalues    EBANDS =     -1933.80329981
  atomic energy  EATOM  =     14912.91411397
  Solvation  Ediel_sol  =         0.00000000
  ---------------------------------------------------
  free energy    TOTEN  =      -308.59821761 eV

  energy without entropy =     -308.59821761  energy(sigma->0) =     -308.59821761


--------------------------------------------------------------------------------------------------------




--------------------------------------- Iteration      1(   4)  ---------------------------------------


     EDDAV:  cpu time      5.9062: real time      5.9211
       DOS:  cpu time      0.0007: real time      0.0007
    --------------------------------------------
      LOOP:  cpu time      5.9069: real time      5.9218

 eigenvalue-minimisations  :  8256
 total energy-change (2. order) :-0.3438747E+02  (-0.3425644E+02)
 number of electron     160.0000000 magnetization 
 augmentation part      160.0000000 magnetization 

 Free energy of the ion-electron system (eV)
  ---------------------------------------------------
  alpha Z        PSCENC =       908.97320413
  Ewald energy   TEWEN  =    -11560.81749721
  -Hartree energ DENC   =     -3501.74562899
  -exchange      EXHF   =         0.00000000
  -V(xc)+E(xc)   XCENC  =       838.61060741
  PAW double counting   =     11611.25864530   -11583.98836241
  entropy T*S    EENTRO =        -0.00000000
  eigenvalues    EBANDS =     -1968.19077392
  atomic energy  EATOM  =     14912.91411397
  Solvation  Ediel_sol  =         0.00000000
  ---------------------------------------------------
  free energy    TOTEN  =      -342.98569172 eV

  energy without entropy =     -342.98569172  energy(sigma->0) =     -342.98569172


--------------------------------------------------------------------------------------------------------




--------------------------------------- Iteration      1(   5)  ---------------------------------------


     EDDAV:  cpu time      6.6608: real time      6.6773
       DOS:  cpu time      0.0007: real time      0.0007
    CHARGE:  cpu time      1.2572: real time      1.2602
    MIXING:  cpu time      0.0251: real time      0.0251
    --------------------------------------------
      LOOP:  cpu time      7.9438: real time      7.9633

 eigenvalue-minimisations  :  9816
 total energy-change (2. order) :-0.2287835E+01  (-0.2285115E+01)
 number of electron     160.0000002 magnetization 
 augmentation part       23.3704889 magnetization 

 Broyden mixing:
  rms(total) = 0.53194E+01    rms(broyden)= 0.53194E+01
  rms(prec ) = 0.67791E+01
  weight for this iteration     100.00

 Free energy of the ion-electron system (eV)
  ---------------------------------------------------
  alpha Z        PSCENC =       908.97320413
  Ewald energy   TEWEN  =    -11560.81749721
  -Hartree energ DENC   =     -3501.74562899
  -exchange      EXHF   =         0.00000000
  -V(xc)+E(xc)   XCENC  =       838.61060741
  PAW double counting   =     11611.25864530   -11583.98836241
  entropy T*S    EENTRO =        -0.00000000
  eigenvalues    EBANDS =     -1970.47860890
  atomic energy  EATOM  =     14912.91411397
  Solvation  Ediel_sol  =         0.00000000
  ---------------------------------------------------
  free energy    TOTEN  =      -345.27352670 eV

  energy without entropy =     -345.27352670  energy(sigma->0) =     -345.27352670


--------------------------------------------------------------------------------------------------------




--------------------------------------- Iteration      1(   6)  ---------------------------------------


    POTLOK:  cpu time      0.0141: real time      0.0145
    SETDIJ:  cpu time      4.5499: real time      4.5592
     EDDAV:  cpu time      5.9188: real time      5.9332
       DOS:  cpu time      0.0007: real time      0.0007
    CHARGE:  cpu time      1.2487: real time      1.2515
    MIXING:  cpu time      0.0255: real time      0.0270
    --------------------------------------------
      LOOP:  cpu time     11.7576: real time     11.7860

 eigenvalue-minimisations  :  8344
 total energy-change (2. order) : 0.9522460E+02  (-0.1628235E+02)
 number of electron     160.0000002 magnetization 
 augmentation part       25.0799398 magnetization 

 Broyden mixing:
  rms(total) = 0.23880E+01    rms(broyden)= 0.23879E+01
  rms(prec ) = 0.24755E+01
  weight for this iteration     100.00

 eigenvalues of (default mixing * dielectric matrix)
  average eigenvalue GAMMA=   1.0942
  1.0942

 Free energy of the ion-electron system (eV)
  ---------------------------------------------------
  alpha Z        PSCENC =       908.97320413
  Ewald energy   TEWEN  =    -11560.81749721
  -Hartree energ DENC   =     -3493.13818168
  -exchange      EXHF   =         0.00000000
  -V(xc)+E(xc)   XCENC  =       868.08107547
  PAW double counting   =     14366.18892983   -14354.96934124
  entropy T*S    EENTRO =        -0.00000000
  eigenvalues    EBANDS =     -1897.28122904
  atomic energy  EATOM  =     14912.91411397
  Solvation  Ediel_sol  =         0.00000000
  ---------------------------------------------------
  free energy    TOTEN  =      -250.04892577 eV

  energy without entropy =     -250.04892577  energy(sigma->0) =     -250.04892577


--------------------------------------------------------------------------------------------------------




--------------------------------------- Iteration      1(   7)  ---------------------------------------


    POTLOK:  cpu time      0.0142: real time      0.0145
    SETDIJ:  cpu time      4.5547: real time      4.5639
     EDDAV:  cpu time      5.3566: real time      5.3697
       DOS:  cpu time      0.0007: real time      0.0007
    CHARGE:  cpu time      1.2491: real time      1.2519
    MIXING:  cpu time      0.0258: real time      0.0271
    --------------------------------------------
      LOOP:  cpu time     11.2011: real time     11.2278

 eigenvalue-minimisations  :  7128
 total energy-change (2. order) :-0.2996040E+01  (-0.2229200E+01)
 number of electron     160.0000002 magnetization 
 augmentation part       24.1869064 magnetization 

 Broyden mixing:
  rms(total) = 0.16267E+01    rms(broyden)= 0.16267E+01
  rms(prec ) = 0.16931E+01
  weight for this iteration     100.00

 eigenvalues of (default mixing * dielectric matrix)
  average eigenvalue GAMMA=   1.8644
  1.0465  2.6823

 Free energy of the ion-electron system (eV)
  ---------------------------------------------------
  alpha Z        PSCENC =       908.97320413
  Ewald energy   TEWEN  =    -11560.81749721
  -Hartree energ DENC   =     -3494.04010349
  -exchange      EXHF   =         0.00000000
  -V(xc)+E(xc)   XCENC  =       864.28697063
  PAW double counting   =     16336.89874844   -16333.29872787
  entropy T*S    EENTRO =        -0.00000000
  eigenvalues    EBANDS =     -1887.96167400
  atomic energy  EATOM  =     14912.91411397
  Solvation  Ediel_sol  =         0.00000000
  ---------------------------------------------------
  free energy    TOTEN  =      -253.04496539 eV

  energy without entropy =     -253.04496539  energy(sigma->0) =     -253.04496539


--------------------------------------------------------------------------------------------------------




--------------------------------------- Iteration      1(   8)  ---------------------------------------


    POTLOK:  cpu time      0.0143: real time      0.0147
    SETDIJ:  cpu time      4.5569: real time      4.5661
     EDDAV:  cpu time      5.0632: real time      5.0756
       DOS:  cpu time      0.0007: real time      0.0007
    CHARGE:  cpu time      1.2447: real time      1.2476
    MIXING:  cpu time      0.0260: real time      0.0261
    --------------------------------------------
      LOOP:  cpu time     10.9058: real time     10.9307

 eigenvalue-minimisations  :  6520
 total energy-change (2. order) :-0.5725765E+00  (-0.4738506E+00)
 number of electron     160.0000002 magnetization 
 augmentation part       24.1722948 magnetization 

 Broyden mixing:
  rms(total) = 0.49135E+00    rms(broyden)= 0.49131E+00
  rms(prec ) = 0.61445E+00
  weight for this iteration     100.00

 eigenvalues of (default mixing * dielectric matrix)
  average eigenvalue GAMMA=   1.3863
  2.1606  0.9992  0.9992

 Free energy of the ion-electron system (eV)
  ---------------------------------------------------
  alpha Z        PSCENC =       908.97320413
  Ewald energy   TEWEN  =    -11560.81749721
  -Hartree energ DENC   =     -3458.82512937
  -exchange      EXHF   =         0.00000000
  -V(xc)+E(xc)   XCENC  =       863.13086066
  PAW double counting   =     19389.50202998   -19380.95610878
  entropy T*S    EENTRO =        -0.00000000
  eigenvalues    EBANDS =     -1927.53901525
  atomic energy  EATOM  =     14912.91411397
  Solvation  Ediel_sol  =         0.00000000
  ---------------------------------------------------
  free energy    TOTEN  =      -253.61754188 eV

  energy without entropy =     -253.61754188  energy(sigma->0) =     -253.61754188


--------------------------------------------------------------------------------------------------------




--------------------------------------- Iteration      1(   9)  ---------------------------------------


    POTLOK:  cpu time      0.0137: real time      0.0140
    SETDIJ:  cpu time      4.5521: real time      4.5613
     EDDAV:  cpu time      5.6416: real time      5.6554
       DOS:  cpu time      0.0007: real time      0.0007
    CHARGE:  cpu time      1.2474: real time      1.2502
    MIXING:  cpu time      0.0264: real time      0.0264
    --------------------------------------------
      LOOP:  cpu time     11.4818: real time     11.5080

 eigenvalue-minimisations  :  7736
 total energy-change (2. order) : 0.2153588E+00  (-0.1747388E+00)
 number of electron     160.0000002 magnetization 
 augmentation part       24.0404109 magnetization 

 Broyden mixing:
  rms(total) = 0.19352E+00    rms(broyden)= 0.19349E+00
  rms(prec ) = 0.24962E+00
  weight for this iteration     100.00

 eigenvalues of (default mixing * dielectric matrix)
  average eigenvalue GAMMA=   1.3903
  2.1096  1.6746  0.8884  0.8884

 Free energy of the ion-electron system (eV)
  ---------------------------------------------------
  alpha Z        PSCENC =       908.97320413
  Ewald energy   TEWEN  =    -11560.81749721
  -Hartree energ DENC   =     -3474.55406451
  -exchange      EXHF   =         0.00000000
  -V(xc)+E(xc)   XCENC  =       865.45403505
  PAW double counting   =     19026.83005425   -19018.78045259
  entropy T*S    EENTRO =        -0.00000000
  eigenvalues    EBANDS =     -1913.42157621
  atomic energy  EATOM  =     14912.91411397
  Solvation  Ediel_sol  =         0.00000000
  ---------------------------------------------------
  free energy    TOTEN  =      -253.40218313 eV

  energy without entropy =     -253.40218313  energy(sigma->0) =     -253.40218313


--------------------------------------------------------------------------------------------------------




--------------------------------------- Iteration      1(  10)  ---------------------------------------


    POTLOK:  cpu time      0.0147: real time      0.0150
    SETDIJ:  cpu time      4.5587: real time      4.5679
     EDDAV:  cpu time      5.7662: real time      5.7803
       DOS:  cpu time      0.0007: real time      0.0007
    CHARGE:  cpu time      1.2555: real time      1.2584
    MIXING:  cpu time      0.0268: real time      0.0268
    --------------------------------------------
      LOOP:  cpu time     11.6225: real time     11.6491

 eigenvalue-minimisations  :  8000
 total energy-change (2. order) :-0.3725859E-01  (-0.4187992E-01)
 number of electron     160.0000002 magnetization 
 augmentation part       23.8941951 magnetization 

 Broyden mixing:
  rms(total) = 0.14994E+00    rms(broyden)= 0.14994E+00
  rms(prec ) = 0.21158E+00
  weight for this iteration     100.00

 eigenvalues of (default mixing * dielectric matrix)
  average eigenvalue GAMMA=   1.4521
  2.6324  1.7798  1.2366  0.8058  0.8058

 Free energy of the ion-electron system (eV)
  ---------------------------------------------------
  alpha Z        PSCENC =       908.97320413
  Ewald energy   TEWEN  =    -11560.81749721
  -Hartree energ DENC   =     -3485.32828195
  -exchange      EXHF   =         0.00000000
  -V(xc)+E(xc)   XCENC  =       865.38585068
  PAW double counting   =     19071.24784880   -19058.11333376
  entropy T*S    EENTRO =        -0.00000000
  eigenvalues    EBANDS =     -1907.70134638
  atomic energy  EATOM  =     14912.91411397
  Solvation  Ediel_sol  =         0.00000000
  ---------------------------------------------------
  free energy    TOTEN  =      -253.43944171 eV

  energy without entropy =     -253.43944171  energy(sigma->0) =     -253.43944171


--------------------------------------------------------------------------------------------------------




--------------------------------------- Iteration      1(  11)  ---------------------------------------


    POTLOK:  cpu time      0.0142: real time      0.0145
    SETDIJ:  cpu time      4.5552: real time      4.5649
     EDDAV:  cpu time      5.5568: real time      5.5704
       DOS:  cpu time      0.0007: real time      0.0007
    CHARGE:  cpu time      1.2486: real time      1.2513
    MIXING:  cpu time      0.0272: real time      0.0273
    --------------------------------------------
      LOOP:  cpu time     11.4025: real time     11.4290

 eigenvalue-minimisations  :  7568
 total energy-change (2. order) : 0.3095082E-01  (-0.2367581E-01)
 number of electron     160.0000002 magnetization 
 augmentation part       23.9406125 magnetization 

 Broyden mixing:
  rms(total) = 0.52915E-01    rms(broyden)= 0.52901E-01
  rms(prec ) = 0.78504E-01
  weight for this iteration     100.00

 eigenvalues of (default mixing * dielectric matrix)
  average eigenvalue GAMMA=   1.3754
  2.3379  2.3379  0.9628  0.9628  0.8254  0.8254

 Free energy of the ion-electron system (eV)
  ---------------------------------------------------
  alpha Z        PSCENC =       908.97320413
  Ewald energy   TEWEN  =    -11560.81749721
  -Hartree energ DENC   =     -3488.15158882
  -exchange      EXHF   =         0.00000000
  -V(xc)+E(xc)   XCENC  =       866.09082544
  PAW double counting   =     19129.48480965   -19114.86267656
  entropy T*S    EENTRO =        -0.00000000
  eigenvalues    EBANDS =     -1907.03968149
  atomic energy  EATOM  =     14912.91411397
  Solvation  Ediel_sol  =         0.00000000
  ---------------------------------------------------
  free energy    TOTEN  =      -253.40849090 eV

  energy without entropy =     -253.40849090  energy(sigma->0) =     -253.40849090


--------------------------------------------------------------------------------------------------------




--------------------------------------- Iteration      1(  12)  ---------------------------------------


    POTLOK:  cpu time      0.0146: real time      0.0150
    SETDIJ:  cpu time      4.5612: real time      4.5709
     EDDAV:  cpu time      5.7660: real time      5.7800
       DOS:  cpu time      0.0007: real time      0.0007
    CHARGE:  cpu time      1.2484: real time      1.2511
    MIXING:  cpu time      0.0276: real time      0.0276
    --------------------------------------------
      LOOP:  cpu time     11.6185: real time     11.6454

 eigenvalue-minimisations  :  7992
 total energy-change (2. order) : 0.3940083E-02  (-0.2471487E-02)
 number of electron     160.0000002 magnetization 
 augmentation part       23.9022917 magnetization 

 Broyden mixing:
  rms(total) = 0.22319E-01    rms(broyden)= 0.22319E-01
  rms(prec ) = 0.25751E-01
  weight for this iteration     100.00

 eigenvalues of (default mixing * dielectric matrix)
  average eigenvalue GAMMA=   1.3644
  2.5065  2.5065  1.1522  1.1522  0.8303  0.8303  0.5730

 Free energy of the ion-electron system (eV)
  ---------------------------------------------------
  alpha Z        PSCENC =       908.97320413
  Ewald energy   TEWEN  =    -11560.81749721
  -Hartree energ DENC   =     -3488.22288033
  -exchange      EXHF   =         0.00000000
  -V(xc)+E(xc)   XCENC  =       865.80850654
  PAW double counting   =     19097.94307073   -19082.81498473
  entropy T*S    EENTRO =        -0.00000000
  eigenvalues    EBANDS =     -1907.18808391
  atomic energy  EATOM  =     14912.91411397
  Solvation  Ediel_sol  =         0.00000000
  ---------------------------------------------------
  free energy    TOTEN  =      -253.40455081 eV

  energy without entropy =     -253.40455081  energy(sigma->0) =     -253.40455081


--------------------------------------------------------------------------------------------------------




--------------------------------------- Iteration      1(  13)  ---------------------------------------


    POTLOK:  cpu time      0.0142: real time      0.0146
    SETDIJ:  cpu time      4.5498: real time      4.5598
     EDDAV:  cpu time      5.6267: real time      5.6405
       DOS:  cpu time      0.0007: real time      0.0007
    CHARGE:  cpu time      1.2460: real time      1.2488
    MIXING:  cpu time      0.0279: real time      0.0280
    --------------------------------------------
      LOOP:  cpu time     11.4653: real time     11.4924

 eigenvalue-minimisations  :  7704
 total energy-change (2. order) : 0.3461848E-04  (-0.2840634E-03)
 number of electron     160.0000002 magnetization 
 augmentation part       23.9015860 magnetization 

 Broyden mixing:
  rms(total) = 0.10891E-01    rms(broyden)= 0.10891E-01
  rms(prec ) = 0.11733E-01
  weight for this iteration     100.00

 eigenvalues of (default mixing * dielectric matrix)
  average eigenvalue GAMMA=   1.4617
  2.8159  2.8159  1.2242  1.2242  1.0669  1.0669  0.7397  0.7397

 Free energy of the ion-electron system (eV)
  ---------------------------------------------------
  alpha Z        PSCENC =       908.97320413
  Ewald energy   TEWEN  =    -11560.81749721
  -Hartree energ DENC   =     -3487.91822338
  -exchange      EXHF   =         0.00000000
  -V(xc)+E(xc)   XCENC  =       865.85275771
  PAW double counting   =     19097.44559629   -19081.75120143
  entropy T*S    EENTRO =        -0.00000000
  eigenvalues    EBANDS =     -1908.10326628
  atomic energy  EATOM  =     14912.91411397
  Solvation  Ediel_sol  =         0.00000000
  ---------------------------------------------------
  free energy    TOTEN  =      -253.40451620 eV

  energy without entropy =     -253.40451620  energy(sigma->0) =     -253.40451620


--------------------------------------------------------------------------------------------------------




--------------------------------------- Iteration      1(  14)  ---------------------------------------


    POTLOK:  cpu time      0.0146: real time      0.0150
    SETDIJ:  cpu time      4.5617: real time      4.5715
     EDDAV:  cpu time      5.6567: real time      5.6705
       DOS:  cpu time      0.0007: real time      0.0007
    CHARGE:  cpu time      1.2476: real time      1.2504
    MIXING:  cpu time      0.0286: real time      0.0287
    --------------------------------------------
      LOOP:  cpu time     11.5099: real time     11.5369

 eigenvalue-minimisations  :  7776
 total energy-change (2. order) :-0.1261930E-03  (-0.4354411E-04)
 number of electron     160.0000002 magnetization 
 augmentation part       23.8969686 magnetization 

 Broyden mixing:
  rms(total) = 0.72397E-02    rms(broyden)= 0.72395E-02
  rms(prec ) = 0.76523E-02
  weight for this iteration     100.00

 eigenvalues of (default mixing * dielectric matrix)
  average eigenvalue GAMMA=   1.4505
  3.0235  2.2015  2.2015  1.1444  1.1444  0.9484  0.9484  0.7211  0.7211

 Free energy of the ion-electron system (eV)
  ---------------------------------------------------
  alpha Z        PSCENC =       908.97320413
  Ewald energy   TEWEN  =    -11560.81749721
  -Hartree energ DENC   =     -3488.30902197
  -exchange      EXHF   =         0.00000000
  -V(xc)+E(xc)   XCENC  =       865.90117272
  PAW double counting   =     19093.76660063   -19077.51392023
  entropy T*S    EENTRO =        -0.00000000
  eigenvalues    EBANDS =     -1908.31929444
  atomic energy  EATOM  =     14912.91411397
  Solvation  Ediel_sol  =         0.00000000
  ---------------------------------------------------
  free energy    TOTEN  =      -253.40464239 eV

  energy without entropy =     -253.40464239  energy(sigma->0) =     -253.40464239


--------------------------------------------------------------------------------------------------------




--------------------------------------- Iteration      1(  15)  ---------------------------------------


    POTLOK:  cpu time      0.0147: real time      0.0149
    SETDIJ:  cpu time      4.5567: real time      4.5665
     EDDAV:  cpu time      6.0018: real time      6.0164
       DOS:  cpu time      0.0007: real time      0.0007
    CHARGE:  cpu time      1.2484: real time      1.2513
    MIXING:  cpu time      0.0293: real time      0.0294
    --------------------------------------------
      LOOP:  cpu time     11.8516: real time     11.8791

 eigenvalue-minimisations  :  8456
 total energy-change (2. order) :-0.2138459E-04  (-0.1569976E-04)
 number of electron     160.0000002 magnetization 
 augmentation part       23.8972658 magnetization 

 Broyden mixing:
  rms(total) = 0.29690E-02    rms(broyden)= 0.29689E-02
  rms(prec ) = 0.40841E-02
  weight for this iteration     100.00

 eigenvalues of (default mixing * dielectric matrix)
  average eigenvalue GAMMA=   1.3756
  2.9965  2.1810  2.1810  1.2165  1.2165  0.9364  0.9364  0.6990  0.6990  0.6940

 Free energy of the ion-electron system (eV)
  ---------------------------------------------------
  alpha Z        PSCENC =       908.97320413
  Ewald energy   TEWEN  =    -11560.81749721
  -Hartree energ DENC   =     -3488.21134632
  -exchange      EXHF   =         0.00000000
  -V(xc)+E(xc)   XCENC  =       865.90988159
  PAW double counting   =     19110.02954585   -19093.78113359
  entropy T*S    EENTRO =        -0.00000000
  eigenvalues    EBANDS =     -1908.42143220
  atomic energy  EATOM  =     14912.91411397
  Solvation  Ediel_sol  =         0.00000000
  ---------------------------------------------------
  free energy    TOTEN  =      -253.40466377 eV

  energy without entropy =     -253.40466377  energy(sigma->0) =     -253.40466377


--------------------------------------------------------------------------------------------------------




--------------------------------------- Iteration      1(  16)  ---------------------------------------


    POTLOK:  cpu time      0.0138: real time      0.0142
    SETDIJ:  cpu time      4.5589: real time      4.5688
     EDDAV:  cpu time      5.5602: real time      5.5741
       DOS:  cpu time      0.0007: real time      0.0007
    CHARGE:  cpu time      1.2484: real time      1.2511
    MIXING:  cpu time      0.0296: real time      0.0297
    --------------------------------------------
      LOOP:  cpu time     11.4116: real time     11.4386

 eigenvalue-minimisations  :  7560
 total energy-change (2. order) : 0.1813505E-05  (-0.1747557E-05)
 number of electron     160.0000002 magnetization 
 augmentation part       23.8967906 magnetization 

 Broyden mixing:
  rms(total) = 0.19450E-02    rms(broyden)= 0.19450E-02
  rms(prec ) = 0.26761E-02
  weight for this iteration     100.00

 eigenvalues of (default mixing * dielectric matrix)
  average eigenvalue GAMMA=   1.4974
  2.8613  2.8613  2.1442  2.1442  1.1035  1.1035  0.9965  0.9965  0.7439  0.7439
  0.7730

 Free energy of the ion-electron system (eV)
  ---------------------------------------------------
  alpha Z        PSCENC =       908.97320413
  Ewald energy   TEWEN  =    -11560.81749721
  -Hartree energ DENC   =     -3488.29382925
  -exchange      EXHF   =         0.00000000
  -V(xc)+E(xc)   XCENC  =       865.91084394
  PAW double counting   =     19110.61981240   -19094.33654935
  entropy T*S    EENTRO =        -0.00000000
  eigenvalues    EBANDS =     -1908.37476058
  atomic energy  EATOM  =     14912.91411397
  Solvation  Ediel_sol  =         0.00000000
  ---------------------------------------------------
  free energy    TOTEN  =      -253.40466196 eV

  energy without entropy =     -253.40466196  energy(sigma->0) =     -253.40466196


--------------------------------------------------------------------------------------------------------




--------------------------------------- Iteration      1(  17)  ---------------------------------------


    POTLOK:  cpu time      0.0145: real time      0.0148
    SETDIJ:  cpu time      4.5536: real time      4.5631
     EDDAV:  cpu time      5.4992: real time      5.5126
       DOS:  cpu time      0.0007: real time      0.0007
    CHARGE:  cpu time      1.2480: real time      1.2507
    MIXING:  cpu time      0.0301: real time      0.0302
    --------------------------------------------
      LOOP:  cpu time     11.3460: real time     11.3721

 eigenvalue-minimisations  :  7480
 total energy-change (2. order) : 0.1141199E-05  (-0.2303659E-05)
 number of electron     160.0000002 magnetization 
 augmentation part       23.8963624 magnetization 

 Broyden mixing:
  rms(total) = 0.85768E-03    rms(broyden)= 0.85757E-03
  rms(prec ) = 0.97431E-03
  weight for this iteration     100.00

 eigenvalues of (default mixing * dielectric matrix)
  average eigenvalue GAMMA=   1.4593
  3.2015  2.6830  2.1269  2.1269  1.1457  1.1457  1.0195  1.0195  0.7883  0.7883
  0.7331  0.7331

 Free energy of the ion-electron system (eV)
  ---------------------------------------------------
  alpha Z        PSCENC =       908.97320413
  Ewald energy   TEWEN  =    -11560.81749721
  -Hartree energ DENC   =     -3488.35135437
  -exchange      EXHF   =         0.00000000
  -V(xc)+E(xc)   XCENC  =       865.91210742
  PAW double counting   =     19111.23828517   -19094.87614456
  entropy T*S    EENTRO =        -0.00000000
  eigenvalues    EBANDS =     -1908.39737536
  atomic energy  EATOM  =     14912.91411397
  Solvation  Ediel_sol  =         0.00000000
  ---------------------------------------------------
  free energy    TOTEN  =      -253.40466082 eV

  energy without entropy =     -253.40466082  energy(sigma->0) =     -253.40466082


--------------------------------------------------------------------------------------------------------




--------------------------------------- Iteration      1(  18)  ---------------------------------------


    POTLOK:  cpu time      0.0145: real time      0.0150
    SETDIJ:  cpu time      4.5608: real time      4.5703
     EDDAV:  cpu time      3.8651: real time      3.8746
       DOS:  cpu time      0.0007: real time      0.0007
    --------------------------------------------
      LOOP:  cpu time      8.4410: real time      8.4605

 eigenvalue-minimisations  :  3960
 total energy-change (2. order) :-0.1087046E-06  (-0.1608679E-06)
 number of electron     160.0000002 magnetization 
 augmentation part       23.8963624 magnetization 

 Free energy of the ion-electron system (eV)
  ---------------------------------------------------
  alpha Z        PSCENC =       908.97320413
  Ewald energy   TEWEN  =    -11560.81749721
  -Hartree energ DENC   =     -3488.33422342
  -exchange      EXHF   =         0.00000000
  -V(xc)+E(xc)   XCENC  =       865.91355368
  PAW double counting   =     19111.71547132   -19095.34437415
  entropy T*S    EENTRO =        -0.00000000
  eigenvalues    EBANDS =     -1908.42490925
  atomic energy  EATOM  =     14912.91411397
  Solvation  Ediel_sol  =         0.00000000
  ---------------------------------------------------
  free energy    TOTEN  =      -253.40466093 eV

  energy without entropy =     -253.40466093  energy(sigma->0) =     -253.40466093


--------------------------------------------------------------------------------------------------------




 average (electrostatic) potential at core
  the test charge radii are     1.1929  1.0397  0.7215
  (the norm of the test charge is              1.0000)
       1 -39.0777       2 -39.0777       3 -39.0777       4 -39.0777       5 -81.2419
       6 -81.2419       7 -81.2419       8 -81.2419       9 -73.2064      10 -73.2064
      11 -73.2064      12 -73.2064      13 -73.2175      14 -73.2175      15 -73.2064
      16 -73.2064      17 -73.2064      18 -73.2064      19 -73.2175      20 -73.2175
 
 
 
 E-fermi :   4.0052     XC(G=0): -11.9079     alpha+bet :-14.0937

 val. band max:        3.7197964326   @ k =   0.0000   0.0000   0.0000
 cond. band min:       6.0601825673   @ k =   0.0000   0.0000   0.0000
 fundamental gap:      2.3403861347
 Fermi energy:         4.0051844044

 k-point     1 :       0.0000    0.0000    0.0000
  band No.  band energies     occupation 
      1     -54.9389      2.00000
      2     -54.9373      2.00000
      3     -54.9355      2.00000
      4     -54.9340      2.00000
      5     -30.2505      2.00000
      6     -30.2022      2.00000
[...]
     72       2.9361      2.00000
     73       3.1203      2.00000
     74       3.1203      2.00000
     75       3.1203      2.00000
     76       3.1203      2.00000
     77       3.3083      2.00000
     78       3.3083      2.00000
     79       3.3083      2.00000
     80       3.3083      2.00000
     81       7.8229      0.00000
     82       7.8229      0.00000
     83       7.8229      0.00000
     84       7.8229      0.00000
     85       7.8573      0.00000
     86       7.8573      0.00000
     87       7.8573      0.00000
     88       7.8573      0.00000
     89       7.8961      0.00000
     90       7.8961      0.00000
     91       7.8961      0.00000
     92       7.8961      0.00000
     93      10.9697      0.00000
     94      10.9712      0.00000
     95      10.9721      0.00000
     96      10.9731      0.00000

 k-point    25 :       0.1667    0.1667    0.5000
  band No.  band energies     occupation 
      1     -54.6131      2.00000
      2     -54.6131      2.00000
      3     -54.6102      2.00000
      4     -54.6102      2.00000
      5     -29.9130      2.00000
      6     -29.9130      2.00000
      7     -29.9003      2.00000
      8     -29.9003      2.00000
      9     -29.8824      2.00000
     10     -29.8824      2.00000
     11     -29.8602      2.00000
     12     -29.8602      2.00000
     13     -29.8463      2.00000
     14     -29.8463      2.00000
     15     -29.8189      2.00000
     16     -29.8189      2.00000
     17     -29.6618      2.00000
     18     -29.6618      2.00000
     19     -29.6599      2.00000
     20     -29.6599      2.00000
     21     -14.4493      2.00000
     22     -14.4493      2.00000
     23     -13.8103      2.00000
     24     -13.8103      2.00000
     25     -13.5495      2.00000
     26     -13.5495      2.00000
     27     -13.4696      2.00000
     28     -13.4696      2.00000
     29     -13.3468      2.00000
     30     -13.3468      2.00000
     31     -13.2932      2.00000
     32     -13.2932      2.00000
     33     -11.2272      2.00000
     34     -11.2272      2.00000
     35     -11.1016      2.00000
     36     -11.1016      2.00000
     37     -11.0080      2.00000
     38     -11.0080      2.00000
     39     -10.9596      2.00000
     40     -10.9596      2.00000
     41     -10.9092      2.00000
     42     -10.9092      2.00000
     43     -10.7982      2.00000
     44     -10.7982      2.00000
     45      -0.5495      2.00000
     46      -0.5495      2.00000
     47      -0.1519      2.00000
     48      -0.1519      2.00000
     49       0.0030      2.00000
     50       0.0030      2.00000
     51       0.2238      2.00000
     52       0.2238      2.00000
     53       0.4472      2.00000
     54       0.4472      2.00000
     55       0.4778      2.00000
     56       0.4778      2.00000
     57       0.7419      2.00000
     58       0.7419      2.00000
     59       0.8903      2.00000
     60       0.8903      2.00000
     61       1.0695      2.00000
     62       1.0695      2.00000
     63       1.3178      2.00000
     64       1.3178      2.00000
     65       1.9458      2.00000
     66       1.9458      2.00000
     67       2.3236      2.00000
     68       2.3236      2.00000
     69       2.7350      2.00000
     70       2.7350      2.00000
     71       3.0492      2.00000
     72       3.0492      2.00000
     73       3.0829      2.00000
     74       3.0829      2.00000
     75       3.1671      2.00000
     76       3.1671      2.00000
     77       3.2663      2.00000
     78       3.2663      2.00000
     79       3.6341      2.00000
     80       3.6341      2.00000
     81       6.9375      0.00000
     82       6.9375      0.00000
     83       7.3701      0.00000
     84       7.3701      0.00000
     85       7.5157      0.00000
     86       7.5157      0.00000
     87       8.2388      0.00000
     88       8.2388      0.00000
     89       8.5172      0.00000
     90       8.5172      0.00000
     91       8.5577      0.00000
     92       8.5577      0.00000
     93       9.2855      0.00000
     94       9.2855      0.00000
     95      10.5002      0.00000
     96      10.5002      0.00000

 k-point    26 :       0.3333    0.1667    0.5000
  band No.  band energies     occupation 
      1     -54.6125      2.00000
      2     -54.6125      2.00000
      3     -54.6108      2.00000
      4     -54.6108      2.00000
      5     -29.9159      2.00000
      6     -29.9159      2.00000
      7     -29.9000      2.00000
      8     -29.9000      2.00000
      9     -29.8641      2.00000
     10     -29.8641      2.00000
     11     -29.8631      2.00000
     12     -29.8631      2.00000
     13     -29.8607      2.00000
     14     -29.8607      2.00000
     15     -29.8248      2.00000
     16     -29.8248      2.00000
     17     -29.6571      2.00000
     18     -29.6571      2.00000
     19     -29.6567      2.00000
     20     -29.6567      2.00000
     21     -14.3466      2.00000
     22     -14.3466      2.00000
     23     -14.0199      2.00000
     24     -14.0199      2.00000
     25     -13.5425      2.00000
     26     -13.5425      2.00000
     27     -13.4592      2.00000
     28     -13.4592      2.00000
     29     -13.3637      2.00000
     30     -13.3637      2.00000
     31     -13.3392      2.00000
     32     -13.3392      2.00000
     33     -11.1915      2.00000
     34     -11.1915      2.00000
     35     -11.0869      2.00000
     36     -11.0869      2.00000
     37     -10.9700      2.00000
     38     -10.9700      2.00000
     39     -10.9226      2.00000
     40     -10.9226      2.00000
     41     -10.8047      2.00000
     42     -10.8047      2.00000
     43     -10.7692      2.00000
     44     -10.7692      2.00000
     45      -0.4525      2.00000
     46      -0.4525      2.00000
     47      -0.0082      2.00000
     48      -0.0082      2.00000
     49       0.0464      2.00000
     50       0.0464      2.00000
     51       0.4284      2.00000
     52       0.4284      2.00000
     53       0.4577      2.00000
     54       0.4577      2.00000
     55       0.5281      2.00000
     56       0.5281      2.00000
     57       0.6069      2.00000
     58       0.6069      2.00000
     59       0.8633      2.00000
     60       0.8633      2.00000
     61       0.9624      2.00000
     62       0.9624      2.00000
     63       1.1939      2.00000
     64       1.1939      2.00000
     65       1.5828      2.00000
     66       1.5828      2.00000
     67       2.1183      2.00000
     68       2.1183      2.00000
     69       2.7211      2.00000
     70       2.7211      2.00000
     71       2.8558      2.00000
     72       2.8558      2.00000
     73       3.0072      2.00000
     74       3.0072      2.00000
     75       3.1154      2.00000
     76       3.1154      2.00000
     77       3.2474      2.00000
     78       3.2474      2.00000
     79       3.4060      2.00000
     80       3.4060      2.00000
     81       7.3887      0.00000
     82       7.3887      0.00000
     83       7.5041      0.00000
     84       7.5041      0.00000
     85       7.7706      0.00000
     86       7.7706      0.00000
     87       7.9342      0.00000
     88       7.9342      0.00000
     89       8.3581      0.00000
     90       8.3581      0.00000
     91       8.3852      0.00000
     92       8.3852      0.00000
     93       9.6787      0.00000
     94       9.6787      0.00000
     95      10.9489      0.00000
     96      10.9513      0.00000

 k-point    27 :       0.5000    0.1667    0.5000
  band No.  band energies     occupation 
      1     -54.6117      2.00000
      2     -54.6117      2.00000
      3     -54.6117      2.00000
      4     -54.6117      2.00000
      5     -29.9088      2.00000
      6     -29.9088      2.00000
      7     -29.9088      2.00000
      8     -29.9088      2.00000
      9     -29.8665      2.00000
     10     -29.8665      2.00000
     11     -29.8665      2.00000
     12     -29.8665      2.00000
     13     -29.8409      2.00000
     14     -29.8409      2.00000
     15     -29.8409      2.00000
     16     -29.8409      2.00000
     17     -29.6550      2.00000
     18     -29.6550      2.00000
     19     -29.6550      2.00000
     20     -29.6550      2.00000
     21     -14.2024      2.00000
     22     -14.2024      2.00000
     23     -14.2024      2.00000
     24     -14.2024      2.00000
     25     -13.4842      2.00000
     26     -13.4842      2.00000
     27     -13.4842      2.00000
     28     -13.4842      2.00000
     29     -13.3872      2.00000
     30     -13.3872      2.00000
     31     -13.3872      2.00000
     32     -13.3872      2.00000
     33     -11.1231      2.00000
     34     -11.1231      2.00000
     35     -11.1231      2.00000
     36     -11.1231      2.00000
     37     -10.9440      2.00000
     38     -10.9440      2.00000
     39     -10.9440      2.00000
     40     -10.9440      2.00000
     41     -10.7399      2.00000
     42     -10.7399      2.00000
     43     -10.7399      2.00000
     44     -10.7399      2.00000
     45      -0.2398      2.00000
     46      -0.2398      2.00000
     47      -0.2398      2.00000
     48      -0.2398      2.00000
     49       0.2385      2.00000
     50       0.2385      2.00000
     51       0.2385      2.00000
     52       0.2385      2.00000
     53       0.5884      2.00000
     54       0.5884      2.00000
     55       0.5884      2.00000
     56       0.5884      2.00000
     57       0.7447      2.00000
     58       0.7447      2.00000
     59       0.7447      2.00000
     60       0.7447      2.00000
     61       1.0601      2.00000
     62       1.0601      2.00000
     63       1.0601      2.00000
     64       1.0601      2.00000
     65       1.6417      2.00000
     66       1.6417      2.00000
     67       1.6417      2.00000
     68       1.6417      2.00000
     69       2.8136      2.00000
     70       2.8136      2.00000
     71       2.8136      2.00000
     72       2.8136      2.00000
     73       2.9581      2.00000
     74       2.9581      2.00000
     75       2.9581      2.00000
     76       2.9581      2.00000
     77       3.2984      2.00000
     78       3.2984      2.00000
     79       3.2984      2.00000
     80       3.2984      2.00000
     81       7.6306      0.00000
     82       7.6306      0.00000
     83       7.6306      0.00000
     84       7.6306      0.00000
     85       7.9744      0.00000
     86       7.9744      0.00000
     87       7.9744      0.00000
     88       7.9744      0.00000
     89       8.1015      0.00000
     90       8.1015      0.00000
     91       8.1015      0.00000
     92       8.1015      0.00000
     93      10.3372      0.00000
     94      10.3372      0.00000
     95      10.3372      0.00000
     96      10.3372      0.00000

 k-point    28 :       0.3333    0.3333    0.5000
  band No.  band energies     occupation 
      1     -54.6122      2.00000
      2     -54.6122      2.00000
      3     -54.6112      2.00000
      4     -54.6112      2.00000
      5     -29.9299      2.00000
      6     -29.9299      2.00000
      7     -29.9166      2.00000
      8     -29.9166      2.00000
      9     -29.8676      2.00000
     10     -29.8676      2.00000
     11     -29.8621      2.00000
     12     -29.8621      2.00000
     13     -29.8386      2.00000
     14     -29.8386      2.00000
     15     -29.8173      2.00000
     16     -29.8173      2.00000
     17     -29.6549      2.00000
     18     -29.6549      2.00000
     19     -29.6544      2.00000
     20     -29.6544      2.00000
     21     -14.3433      2.00000
     22     -14.3433      2.00000
     23     -14.1819      2.00000
     24     -14.1819      2.00000
     25     -13.5284      2.00000
     26     -13.5284      2.00000
     27     -13.4168      2.00000
     28     -13.4168      2.00000
     29     -13.3789      2.00000
     30     -13.3789      2.00000
     31     -13.3518      2.00000
     32     -13.3518      2.00000
     33     -11.1495      2.00000
     34     -11.1495      2.00000
     35     -11.0482      2.00000
     36     -11.0482      2.00000
     37     -10.8953      2.00000
     38     -10.8953      2.00000
     39     -10.8365      2.00000
     40     -10.8365      2.00000
     41     -10.7976      2.00000
     42     -10.7976      2.00000
     43     -10.7533      2.00000
     44     -10.7533      2.00000
     45      -0.5547      2.00000
     46      -0.5547      2.00000
     47      -0.2145      2.00000
     48      -0.2145      2.00000
     49      -0.0123      2.00000
     50      -0.0123      2.00000
     51       0.2423      2.00000
     52       0.2423      2.00000
     53       0.4110      2.00000
     54       0.4110      2.00000
     55       0.5266      2.00000
     56       0.5266      2.00000
     57       0.7363      2.00000
     58       0.7363      2.00000
     59       0.8408      2.00000
     60       0.8408      2.00000
     61       1.0383      2.00000
     62       1.0383      2.00000
     63       1.5765      2.00000
     64       1.5765      2.00000
     65       1.7165      2.00000
     66       1.7165      2.00000
     67       2.1216      2.00000
     68       2.1216      2.00000
     69       2.5066      2.00000
     70       2.5066      2.00000
     71       2.7244      2.00000
     72       2.7244      2.00000
     73       2.8086      2.00000
     74       2.8086      2.00000
     75       2.8530      2.00000
     76       2.8530      2.00000
     77       3.2895      2.00000
     78       3.2895      2.00000
     79       3.3200      2.00000
     80       3.3200      2.00000
     81       7.3938      0.00000
     82       7.3938      0.00000
     83       7.6696      0.00000
     84       7.6696      0.00000
     85       7.8428      0.00000
     86       7.8428      0.00000
     87       8.0532      0.00000
     88       8.0532      0.00000
     89       8.3049      0.00000
     90       8.3049      0.00000
     91       8.4360      0.00000
     92       8.4360      0.00000
     93       9.5333      0.00000
     94       9.5333      0.00000
     95      10.3526      0.00000
     96      10.3526      0.00000

 k-point    29 :       0.5000    0.3333    0.5000
  band No.  band energies     occupation 
      1     -54.6117      2.00000
      2     -54.6117      2.00000
      3     -54.6117      2.00000
      4     -54.6117      2.00000
      5     -29.9299      2.00000
      6     -29.9299      2.00000
      7     -29.9299      2.00000
      8     -29.9299      2.00000
      9     -29.8643      2.00000
     10     -29.8643      2.00000
     11     -29.8643      2.00000
     12     -29.8643      2.00000
     13     -29.8228      2.00000
     14     -29.8228      2.00000
     15     -29.8228      2.00000
     16     -29.8228      2.00000
     17     -29.6535      2.00000
     18     -29.6535      2.00000
     19     -29.6535      2.00000
     20     -29.6535      2.00000
     21     -14.2977      2.00000
     22     -14.2977      2.00000
     23     -14.2977      2.00000
     24     -14.2977      2.00000
     25     -13.4610      2.00000
     26     -13.4610      2.00000
     27     -13.4610      2.00000
     28     -13.4610      2.00000
     29     -13.3745      2.00000
     30     -13.3745      2.00000
     31     -13.3745      2.00000
     32     -13.3745      2.00000
     33     -11.0733      2.00000
     34     -11.0733      2.00000
     35     -11.0733      2.00000
     36     -11.0733      2.00000
     37     -10.8672      2.00000
     38     -10.8672      2.00000
     39     -10.8672      2.00000
     40     -10.8672      2.00000
     41     -10.7329      2.00000
     42     -10.7329      2.00000
     43     -10.7329      2.00000
     44     -10.7329      2.00000
     45      -0.4580      2.00000
     46      -0.4580      2.00000
     47      -0.4580      2.00000
     48      -0.4580      2.00000
     49       0.0196      2.00000
     50       0.0196      2.00000
     51       0.0196      2.00000
     52       0.0196      2.00000
     53       0.4392      2.00000
     54       0.4392      2.00000
     55       0.4392      2.00000
     56       0.4392      2.00000
     57       0.9713      2.00000
     58       0.9713      2.00000
     59       0.9713      2.00000
     60       0.9713      2.00000
     61       1.1974      2.00000
     62       1.1974      2.00000
     63       1.1974      2.00000
     64       1.1974      2.00000
     65       2.1461      2.00000
     66       2.1461      2.00000
     67       2.1461      2.00000
     68       2.1461      2.00000
     69       2.4549      2.00000
     70       2.4549      2.00000
     71       2.4549      2.00000
     72       2.4549      2.00000
     73       2.7111      2.00000
     74       2.7111      2.00000
     75       2.7111      2.00000
     76       2.7111      2.00000
     77       3.3062      2.00000
     78       3.3062      2.00000
     79       3.3062      2.00000
     80       3.3062      2.00000
     81       7.4771      0.00000
     82       7.4771      0.00000
     83       7.4771      0.00000
     84       7.4771      0.00000
     85       8.1436      0.00000
     86       8.1436      0.00000
     87       8.1436      0.00000
     88       8.1436      0.00000
     89       8.3108      0.00000
     90       8.3108      0.00000
     91       8.3108      0.00000
     92       8.3108      0.00000
     93       9.7929      0.00000
     94       9.7929      0.00000
     95       9.7929      0.00000
     96       9.7929      0.00000

 k-point    30 :       0.5000    0.5000    0.5000
  band No.  band energies     occupation 
      1     -54.6117      2.00000
      2     -54.6117      2.00000
      3     -54.6117      2.00000
      4     -54.6117      2.00000
      5     -29.9381      2.00000
      6     -29.9381      2.00000
      7     -29.9381      2.00000
      8     -29.9381      2.00000
      9     -29.8630      2.00000
     10     -29.8630      2.00000
     11     -29.8630      2.00000
     12     -29.8630      2.00000
     13     -29.8165      2.00000
     14     -29.8165      2.00000
     15     -29.8165      2.00000
     16     -29.8165      2.00000
     17     -29.6526      2.00000
     18     -29.6526      2.00000
     19     -29.6526      2.00000
     20     -29.6526      2.00000
     21     -14.3407      2.00000
     22     -14.3407      2.00000
     23     -14.3407      2.00000
     24     -14.3407      2.00000
     25     -13.4418      2.00000
     26     -13.4418      2.00000
     27     -13.4418      2.00000
     28     -13.4418      2.00000
     29     -13.3807      2.00000
     30     -13.3807      2.00000
     31     -13.3807      2.00000
     32     -13.3807      2.00000
     33     -11.0304      2.00000
     34     -11.0304      2.00000
     35     -11.0304      2.00000
     36     -11.0304      2.00000
     37     -10.8723      2.00000
     38     -10.8723      2.00000
     39     -10.8723      2.00000
     40     -10.8723      2.00000
     41     -10.7031      2.00000
     42     -10.7031      2.00000
     43     -10.7031      2.00000
     44     -10.7031      2.00000
     45      -0.5596      2.00000
     46      -0.5596      2.00000
     47      -0.5596      2.00000
     48      -0.5596      2.00000
     49      -0.0820      2.00000
     50      -0.0820      2.00000
     51      -0.0820      2.00000
     52      -0.0820      2.00000
     53       0.4149      2.00000
     54       0.4149      2.00000
     55       0.4149      2.00000
     56       0.4149      2.00000
     57       1.0629      2.00000
     58       1.0629      2.00000
     59       1.0629      2.00000
     60       1.0629      2.00000
     61       1.3724      2.00000
     62       1.3724      2.00000
     63       1.3724      2.00000
     64       1.3724      2.00000
     65       2.0452      2.00000
     66       2.0452      2.00000
 